47
	Energy:      71.8567031
O          1.63937        1.41910        0.96692
O          3.66691       -0.06489       -1.65173
O          5.66341        1.28220       -0.18908
O          5.75413       -0.42914        2.02420
O         -4.72050        1.69838        0.72783
O         -1.73948        4.68969       -0.78940
N         -0.47531        0.24890       -0.63807
N         -2.98508       -0.35872        0.37461
N         -1.12946        2.54739       -0.71977
N         -3.27749        3.24386       -0.02281
C          1.95013        0.51249       -0.06145
C          0.86679        0.60728       -1.16404
C          3.34717        0.85135       -0.63312
C          4.47297        0.86640        0.43243
C         -0.80893       -1.06516       -0.34247
C         -1.41157        1.24335       -0.43882
C         -2.09297       -1.35685        0.17814
C          0.07603       -2.14964       -0.55520
C         -2.68159        0.92542        0.07784
C          4.70182       -0.50311        1.10052
C         -0.29261       -3.47022       -0.24433
C         -2.46239       -2.66714        0.48909
C         -1.57431       -3.73097        0.28671
C         -3.61358        1.94975        0.28134
C          0.68964       -4.58810       -0.48690
C         -2.00888       -5.13142        0.63365
C         -2.03513        3.53882       -0.52222
H          1.99552       -0.51531        0.35084
H          0.89789        1.65081       -1.54140
H          1.09850       -0.02235       -2.04948
H          3.27580        1.88247       -1.05772
H          4.18490        1.60737        1.21556
H          1.05880       -1.99434       -0.97161
H          3.78781       -0.86979        1.61588
H          4.96928       -1.25797        0.33104
H         -3.45243       -2.85459        0.88882
H          1.00491        0.96137        1.57840
H          4.21775        0.41938       -2.32081
H          6.20636        1.75145        0.49731
H          1.64829       -4.21563       -0.90649
H          0.91487       -5.10602        0.46866
H          0.26227       -5.31616       -1.20756
H         -3.04396       -5.15481        1.03621
H         -1.98033       -5.77120       -0.27296
H         -1.33267       -5.55609        1.40468
H         -3.97229        4.01104        0.12849
H          5.39678        0.03355        2.82678
